
     Program PROJWFC v.7.0 starts on 29Mar2022 at 16:27:21 

     This program is part of the open-source Quantum ESPRESSO suite
     for quantum simulation of materials; please cite
         "P. Giannozzi et al., J. Phys.:Condens. Matter 21 395502 (2009);
         "P. Giannozzi et al., J. Phys.:Condens. Matter 29 465901 (2017);
         "P. Giannozzi et al., J. Chem. Phys. 152 154105 (2020);
          URL http://www.quantum-espresso.org", 
     in publications or presentations arising from this work. More details at
     http://www.quantum-espresso.org/quote

     Parallel version (MPI), running on     1 processors

     MPI processes distributed on     1 nodes
     0 MiB available memory on the printing compute node when the environment starts


     Reading xml data from directory:

     ./out/SF6.save/

     IMPORTANT: XC functional enforced from input :
     Exchange-correlation= PBE
                           (   1   4   3   4   0   0   0)
     Any further DFT definition will be discarded
     Please, verify this is what you really want


     G-vector sticks info
     --------------------
     sticks:   dense  smooth     PW     G-vecs:    dense   smooth      PW
     Sum        4537    4537   1129               230389   230389   28671

     Using Slab Decomposition


     Check: negative core charge=   -0.000074

     Gaussian broadening (read from input): ngauss,degauss=   0    0.001000


     Calling projwave .... 
     gamma-point specific algorithms are used

     Subspace diagonalization in iterative solution of the eigenvalue problem:
     a serial algorithm will be used


  Problem Sizes 
  natomwfc =           28
  nbnd     =           29
  nkstot   =            1
  npwx     =        14336
  nkb      =           96


     Atomic states used for projection
     (read from pseudopotential files):

     state #   1: atom   1 (S  ), wfc  1 (l=0 m= 1)
     state #   2: atom   1 (S  ), wfc  2 (l=1 m= 1)
     state #   3: atom   1 (S  ), wfc  2 (l=1 m= 2)
     state #   4: atom   1 (S  ), wfc  2 (l=1 m= 3)
     state #   5: atom   2 (F  ), wfc  1 (l=0 m= 1)
     state #   6: atom   2 (F  ), wfc  2 (l=1 m= 1)
     state #   7: atom   2 (F  ), wfc  2 (l=1 m= 2)
     state #   8: atom   2 (F  ), wfc  2 (l=1 m= 3)
     state #   9: atom   3 (F  ), wfc  1 (l=0 m= 1)
     state #  10: atom   3 (F  ), wfc  2 (l=1 m= 1)
     state #  11: atom   3 (F  ), wfc  2 (l=1 m= 2)
     state #  12: atom   3 (F  ), wfc  2 (l=1 m= 3)
     state #  13: atom   4 (F  ), wfc  1 (l=0 m= 1)
     state #  14: atom   4 (F  ), wfc  2 (l=1 m= 1)
     state #  15: atom   4 (F  ), wfc  2 (l=1 m= 2)
     state #  16: atom   4 (F  ), wfc  2 (l=1 m= 3)
     state #  17: atom   5 (F  ), wfc  1 (l=0 m= 1)
     state #  18: atom   5 (F  ), wfc  2 (l=1 m= 1)
     state #  19: atom   5 (F  ), wfc  2 (l=1 m= 2)
     state #  20: atom   5 (F  ), wfc  2 (l=1 m= 3)
     state #  21: atom   6 (F  ), wfc  1 (l=0 m= 1)
     state #  22: atom   6 (F  ), wfc  2 (l=1 m= 1)
     state #  23: atom   6 (F  ), wfc  2 (l=1 m= 2)
     state #  24: atom   6 (F  ), wfc  2 (l=1 m= 3)
     state #  25: atom   7 (F  ), wfc  1 (l=0 m= 1)
     state #  26: atom   7 (F  ), wfc  2 (l=1 m= 1)
     state #  27: atom   7 (F  ), wfc  2 (l=1 m= 2)
     state #  28: atom   7 (F  ), wfc  2 (l=1 m= 3)

 k =   0.0000000000  0.0000000000  0.0000000000
==== e(   1) =   -35.69384 eV ==== 
     psi = 0.272*[#   1]+0.104*[#   5]+0.104*[#   9]+0.104*[#  13]+0.104*[#  17]
          +0.104*[#  21]+0.104*[#  25]+0.017*[#   8]+0.017*[#  12]+0.017*[#  15]
          +0.017*[#  19]+0.017*[#  22]+0.017*[#  26]
    |psi|^2 = 0.995
==== e(   2) =   -32.59044 eV ==== 
     psi = 0.130*[#   5]+0.130*[#   9]+0.130*[#  13]+0.130*[#  17]+0.130*[#  21]
          +0.130*[#  25]+0.063*[#   2]+0.063*[#   3]+0.063*[#   4]+0.004*[#   8]
          +0.004*[#  12]+0.004*[#  15]+0.004*[#  19]+0.004*[#  22]+0.004*[#  26]
          
    |psi|^2 = 0.996
==== e(   3) =   -32.59044 eV ==== 
     psi = 0.130*[#   5]+0.130*[#   9]+0.130*[#  13]+0.130*[#  17]+0.130*[#  21]
          +0.130*[#  25]+0.063*[#   2]+0.063*[#   3]+0.063*[#   4]+0.004*[#   8]
          +0.004*[#  12]+0.004*[#  15]+0.004*[#  19]+0.004*[#  22]+0.004*[#  26]
          
    |psi|^2 = 0.996
==== e(   4) =   -32.59044 eV ==== 
     psi = 0.130*[#   5]+0.130*[#   9]+0.130*[#  13]+0.130*[#  17]+0.130*[#  21]
          +0.130*[#  25]+0.063*[#   2]+0.063*[#   3]+0.063*[#   4]+0.004*[#   8]
          +0.004*[#  12]+0.004*[#  15]+0.004*[#  19]+0.004*[#  22]+0.004*[#  26]
          
    |psi|^2 = 0.996
==== e(   5) =   -31.29843 eV ==== 
     psi = 0.164*[#   5]+0.164*[#   9]+0.164*[#  13]+0.164*[#  17]+0.164*[#  21]
          +0.164*[#  25]+0.002*[#   8]+0.002*[#  12]+0.002*[#  15]+0.002*[#  19]
          +0.002*[#  22]+0.002*[#  26]
    |psi|^2 = 0.993
==== e(   6) =   -31.29843 eV ==== 
     psi = 0.164*[#   5]+0.164*[#   9]+0.164*[#  13]+0.164*[#  17]+0.164*[#  21]
          +0.164*[#  25]+0.002*[#   8]+0.002*[#  12]+0.002*[#  15]+0.002*[#  19]
          +0.002*[#  22]+0.002*[#  26]
    |psi|^2 = 0.993
==== e(   7) =   -20.07711 eV ==== 
     psi = 0.222*[#   1]+0.071*[#   8]+0.071*[#  12]+0.071*[#  15]+0.071*[#  19]
          +0.071*[#  22]+0.071*[#  26]+0.056*[#   5]+0.056*[#   9]+0.056*[#  13]
          +0.056*[#  17]+0.056*[#  21]+0.056*[#  25]
    |psi|^2 = 0.987
==== e(   8) =   -16.13835 eV ==== 
     psi = 0.093*[#   8]+0.093*[#  12]+0.093*[#  15]+0.093*[#  19]+0.093*[#  22]
          +0.093*[#  26]+0.060*[#   2]+0.060*[#   3]+0.060*[#   4]+0.023*[#   5]
          +0.023*[#   9]+0.023*[#  13]+0.023*[#  17]+0.023*[#  21]+0.023*[#  25]
          +0.009*[#   6]+0.009*[#   7]+0.009*[#  10]+0.009*[#  11]+0.009*[#  14]
          +0.009*[#  16]+0.009*[#  18]+0.009*[#  20]+0.009*[#  23]+0.009*[#  24]
          +0.009*[#  27]+0.009*[#  28]
    |psi|^2 = 0.981
==== e(   9) =   -16.13835 eV ==== 
     psi = 0.093*[#   8]+0.093*[#  12]+0.093*[#  15]+0.093*[#  19]+0.093*[#  22]
          +0.093*[#  26]+0.060*[#   2]+0.060*[#   3]+0.060*[#   4]+0.023*[#   5]
          +0.023*[#   9]+0.023*[#  13]+0.023*[#  17]+0.023*[#  21]+0.023*[#  25]
          +0.009*[#   6]+0.009*[#   7]+0.009*[#  10]+0.009*[#  11]+0.009*[#  14]
          +0.009*[#  16]+0.009*[#  18]+0.009*[#  20]+0.009*[#  23]+0.009*[#  24]
          +0.009*[#  27]+0.009*[#  28]
    |psi|^2 = 0.981
==== e(  10) =   -16.13835 eV ==== 
     psi = 0.093*[#   8]+0.093*[#  12]+0.093*[#  15]+0.093*[#  19]+0.093*[#  22]
          +0.093*[#  26]+0.060*[#   2]+0.060*[#   3]+0.060*[#   4]+0.023*[#   5]
          +0.023*[#   9]+0.023*[#  13]+0.023*[#  17]+0.023*[#  21]+0.023*[#  25]
          +0.009*[#   6]+0.009*[#   7]+0.009*[#  10]+0.009*[#  11]+0.009*[#  14]
          +0.009*[#  16]+0.009*[#  18]+0.009*[#  20]+0.009*[#  23]+0.009*[#  24]
          +0.009*[#  27]+0.009*[#  28]
    |psi|^2 = 0.981
==== e(  11) =   -13.10112 eV ==== 
     psi = 0.080*[#   6]+0.080*[#   7]+0.080*[#  10]+0.080*[#  11]+0.080*[#  14]
          +0.080*[#  16]+0.080*[#  18]+0.080*[#  20]+0.080*[#  23]+0.080*[#  24]
          +0.080*[#  27]+0.080*[#  28]
    |psi|^2 = 0.966
==== e(  12) =   -13.10112 eV ==== 
     psi = 0.080*[#   6]+0.080*[#   7]+0.080*[#  10]+0.080*[#  11]+0.080*[#  14]
          +0.080*[#  16]+0.080*[#  18]+0.080*[#  20]+0.080*[#  23]+0.080*[#  24]
          +0.080*[#  27]+0.080*[#  28]
    |psi|^2 = 0.966
==== e(  13) =   -13.10112 eV ==== 
     psi = 0.080*[#   6]+0.080*[#   7]+0.080*[#  10]+0.080*[#  11]+0.080*[#  14]
          +0.080*[#  16]+0.080*[#  18]+0.080*[#  20]+0.080*[#  23]+0.080*[#  24]
          +0.080*[#  27]+0.080*[#  28]
    |psi|^2 = 0.966
==== e(  14) =   -12.62159 eV ==== 
     psi = 0.159*[#   8]+0.159*[#  12]+0.159*[#  15]+0.159*[#  19]+0.159*[#  22]
          +0.159*[#  26]+0.002*[#   5]+0.002*[#   9]+0.002*[#  13]+0.002*[#  17]
          +0.002*[#  21]+0.002*[#  25]
    |psi|^2 = 0.968
==== e(  15) =   -12.62159 eV ==== 
     psi = 0.159*[#   8]+0.159*[#  12]+0.159*[#  15]+0.159*[#  19]+0.159*[#  22]
          +0.159*[#  26]+0.002*[#   5]+0.002*[#   9]+0.002*[#  13]+0.002*[#  17]
          +0.002*[#  21]+0.002*[#  25]
    |psi|^2 = 0.968
==== e(  16) =   -10.68478 eV ==== 
     psi = 0.068*[#   6]+0.068*[#   7]+0.068*[#  10]+0.068*[#  11]+0.068*[#  14]
          +0.068*[#  16]+0.068*[#  18]+0.068*[#  20]+0.068*[#  23]+0.068*[#  24]
          +0.068*[#  27]+0.068*[#  28]+0.030*[#   8]+0.030*[#  12]+0.030*[#  15]
          +0.030*[#  19]+0.030*[#  22]+0.030*[#  26]
    |psi|^2 = 0.994
==== e(  17) =   -10.68478 eV ==== 
     psi = 0.068*[#   6]+0.068*[#   7]+0.068*[#  10]+0.068*[#  11]+0.068*[#  14]
          +0.068*[#  16]+0.068*[#  18]+0.068*[#  20]+0.068*[#  23]+0.068*[#  24]
          +0.068*[#  27]+0.068*[#  28]+0.030*[#   8]+0.030*[#  12]+0.030*[#  15]
          +0.030*[#  19]+0.030*[#  22]+0.030*[#  26]
    |psi|^2 = 0.994
==== e(  18) =   -10.68478 eV ==== 
     psi = 0.068*[#   6]+0.068*[#   7]+0.068*[#  10]+0.068*[#  11]+0.068*[#  14]
          +0.068*[#  16]+0.068*[#  18]+0.068*[#  20]+0.068*[#  23]+0.068*[#  24]
          +0.068*[#  27]+0.068*[#  28]+0.030*[#   8]+0.030*[#  12]+0.030*[#  15]
          +0.030*[#  19]+0.030*[#  22]+0.030*[#  26]
    |psi|^2 = 0.994
==== e(  19) =   -10.52250 eV ==== 
     psi = 0.083*[#   6]+0.083*[#   7]+0.083*[#  10]+0.083*[#  11]+0.083*[#  14]
          +0.083*[#  16]+0.083*[#  18]+0.083*[#  20]+0.083*[#  23]+0.083*[#  24]
          +0.083*[#  27]+0.083*[#  28]
    |psi|^2 = 0.995
==== e(  20) =   -10.52250 eV ==== 
     psi = 0.083*[#   6]+0.083*[#   7]+0.083*[#  10]+0.083*[#  11]+0.083*[#  14]
          +0.083*[#  16]+0.083*[#  18]+0.083*[#  20]+0.083*[#  23]+0.083*[#  24]
          +0.083*[#  27]+0.083*[#  28]
    |psi|^2 = 0.995
==== e(  21) =   -10.52250 eV ==== 
     psi = 0.083*[#   6]+0.083*[#   7]+0.083*[#  10]+0.083*[#  11]+0.083*[#  14]
          +0.083*[#  16]+0.083*[#  18]+0.083*[#  20]+0.083*[#  23]+0.083*[#  24]
          +0.083*[#  27]+0.083*[#  28]
    |psi|^2 = 0.995
==== e(  22) =    -9.31420 eV ==== 
     psi = 0.083*[#   6]+0.083*[#   7]+0.083*[#  10]+0.083*[#  11]+0.083*[#  14]
          +0.083*[#  16]+0.083*[#  18]+0.083*[#  20]+0.083*[#  23]+0.083*[#  24]
          +0.083*[#  27]+0.083*[#  28]
    |psi|^2 = 0.998
==== e(  23) =    -9.31420 eV ==== 
     psi = 0.083*[#   6]+0.083*[#   7]+0.083*[#  10]+0.083*[#  11]+0.083*[#  14]
          +0.083*[#  16]+0.083*[#  18]+0.083*[#  20]+0.083*[#  23]+0.083*[#  24]
          +0.083*[#  27]+0.083*[#  28]
    |psi|^2 = 0.998
==== e(  24) =    -9.31420 eV ==== 
     psi = 0.083*[#   6]+0.083*[#   7]+0.083*[#  10]+0.083*[#  11]+0.083*[#  14]
          +0.083*[#  16]+0.083*[#  18]+0.083*[#  20]+0.083*[#  23]+0.083*[#  24]
          +0.083*[#  27]+0.083*[#  28]
    |psi|^2 = 0.998
==== e(  25) =    -1.95261 eV ==== 
     psi = 0.379*[#   1]+0.058*[#   8]+0.058*[#  12]+0.058*[#  15]+0.058*[#  19]
          +0.058*[#  22]+0.058*[#  26]+0.005*[#   5]+0.005*[#   9]+0.005*[#  13]
          +0.005*[#  17]+0.005*[#  21]+0.005*[#  25]
    |psi|^2 = 0.754
==== e(  26) =    -0.94458 eV ==== 
     psi = 0.090*[#   1]+0.016*[#   8]+0.016*[#  12]+0.016*[#  15]+0.016*[#  19]
          +0.016*[#  22]+0.016*[#  26]+0.001*[#   5]+0.001*[#   9]+0.001*[#  13]
          +0.001*[#  17]+0.001*[#  21]+0.001*[#  25]
    |psi|^2 = 0.193
==== e(  27) =     0.23562 eV ==== 

    |psi|^2 = 0.000
==== e(  28) =     0.26631 eV ==== 
     psi = 0.007*[#   2]+0.007*[#   3]+0.007*[#   4]
    |psi|^2 = 0.025
==== e(  29) =     0.26631 eV ==== 
     psi = 0.007*[#   2]+0.007*[#   3]+0.007*[#   4]
    |psi|^2 = 0.025

Lowdin Charges: 

     Atom #   1: total charge =   3.2061, s =  0.9872, 
     Atom #   1: total charge =   3.2061, p =  2.2189, pz=  0.7396, px=  0.7396, py=  0.7396, 
     Atom #   2: total charge =   7.3640, s =  1.9024, 
     Atom #   2: total charge =   7.3640, p =  5.4615, pz=  1.9419, px=  1.9419, py=  1.5777, 
     Atom #   3: total charge =   7.3640, s =  1.9024, 
     Atom #   3: total charge =   7.3640, p =  5.4615, pz=  1.9419, px=  1.9419, py=  1.5777, 
     Atom #   4: total charge =   7.3640, s =  1.9024, 
     Atom #   4: total charge =   7.3640, p =  5.4615, pz=  1.9419, px=  1.5777, py=  1.9419, 
     Atom #   5: total charge =   7.3640, s =  1.9024, 
     Atom #   5: total charge =   7.3640, p =  5.4615, pz=  1.9419, px=  1.5777, py=  1.9419, 
     Atom #   6: total charge =   7.3640, s =  1.9024, 
     Atom #   6: total charge =   7.3640, p =  5.4615, pz=  1.5777, px=  1.9419, py=  1.9419, 
     Atom #   7: total charge =   7.3640, s =  1.9024, 
     Atom #   7: total charge =   7.3640, p =  5.4615, pz=  1.5777, px=  1.9419, py=  1.9419, 
     Spilling Parameter:   0.0127

     PROJWFC      :      0.45s CPU      0.49s WALL


   This run was terminated on:  16:27:22  29Mar2022            

=------------------------------------------------------------------------------=
   JOB DONE.
=------------------------------------------------------------------------------=
