
     Program PROJWFC v.7.0 starts on 29Mar2022 at 18:33:20 

     This program is part of the open-source Quantum ESPRESSO suite
     for quantum simulation of materials; please cite
         "P. Giannozzi et al., J. Phys.:Condens. Matter 21 395502 (2009);
         "P. Giannozzi et al., J. Phys.:Condens. Matter 29 465901 (2017);
         "P. Giannozzi et al., J. Chem. Phys. 152 154105 (2020);
          URL http://www.quantum-espresso.org", 
     in publications or presentations arising from this work. More details at
     http://www.quantum-espresso.org/quote

     Parallel version (MPI), running on     1 processors

     MPI processes distributed on     1 nodes
     0 MiB available memory on the printing compute node when the environment starts


     Reading xml data from directory:

     ./out/SF6.save/

     IMPORTANT: XC functional enforced from input :
     Exchange-correlation= PBE
                           (   1   4   3   4   0   0   0)
     Any further DFT definition will be discarded
     Please, verify this is what you really want


     G-vector sticks info
     --------------------
     sticks:   dense  smooth     PW     G-vecs:    dense   smooth      PW
     Sum        4537    4537   1129               230389   230389   28671

     Using Slab Decomposition


     Check: negative core charge=   -0.000074

     Gaussian broadening (read from input): ngauss,degauss=   0    0.001000


     Calling projwave .... 
     gamma-point specific algorithms are used

     Subspace diagonalization in iterative solution of the eigenvalue problem:
     a serial algorithm will be used


  Problem Sizes 
  natomwfc =           28
  nbnd     =           29
  nkstot   =            1
  npwx     =        14336
  nkb      =           96


     Atomic states used for projection
     (read from pseudopotential files):

     state #   1: atom   1 (S  ), wfc  1 (l=0 m= 1)
     state #   2: atom   1 (S  ), wfc  2 (l=1 m= 1)
     state #   3: atom   1 (S  ), wfc  2 (l=1 m= 2)
     state #   4: atom   1 (S  ), wfc  2 (l=1 m= 3)
     state #   5: atom   2 (F  ), wfc  1 (l=0 m= 1)
     state #   6: atom   2 (F  ), wfc  2 (l=1 m= 1)
     state #   7: atom   2 (F  ), wfc  2 (l=1 m= 2)
     state #   8: atom   2 (F  ), wfc  2 (l=1 m= 3)
     state #   9: atom   3 (F  ), wfc  1 (l=0 m= 1)
     state #  10: atom   3 (F  ), wfc  2 (l=1 m= 1)
     state #  11: atom   3 (F  ), wfc  2 (l=1 m= 2)
     state #  12: atom   3 (F  ), wfc  2 (l=1 m= 3)
     state #  13: atom   4 (F  ), wfc  1 (l=0 m= 1)
     state #  14: atom   4 (F  ), wfc  2 (l=1 m= 1)
     state #  15: atom   4 (F  ), wfc  2 (l=1 m= 2)
     state #  16: atom   4 (F  ), wfc  2 (l=1 m= 3)
     state #  17: atom   5 (F  ), wfc  1 (l=0 m= 1)
     state #  18: atom   5 (F  ), wfc  2 (l=1 m= 1)
     state #  19: atom   5 (F  ), wfc  2 (l=1 m= 2)
     state #  20: atom   5 (F  ), wfc  2 (l=1 m= 3)
     state #  21: atom   6 (F  ), wfc  1 (l=0 m= 1)
     state #  22: atom   6 (F  ), wfc  2 (l=1 m= 1)
     state #  23: atom   6 (F  ), wfc  2 (l=1 m= 2)
     state #  24: atom   6 (F  ), wfc  2 (l=1 m= 3)
     state #  25: atom   7 (F  ), wfc  1 (l=0 m= 1)
     state #  26: atom   7 (F  ), wfc  2 (l=1 m= 1)
     state #  27: atom   7 (F  ), wfc  2 (l=1 m= 2)
     state #  28: atom   7 (F  ), wfc  2 (l=1 m= 3)

 k =   0.0000000000  0.0000000000  0.0000000000
==== e(   1) =   -35.69384 eV ==== 
     psi = 0.272*[#   1]+0.104*[#   5]+0.104*[#   9]+0.104*[#  13]+0.104*[#  17]
          +0.104*[#  21]+0.104*[#  25]+0.017*[#   8]+0.017*[#  12]+0.017*[#  15]
          +0.017*[#  19]+0.017*[#  22]+0.017*[#  26]
    |psi|^2 = 0.995
==== e(   2) =   -32.59044 eV ==== 
     psi = 0.293*[#   5]+0.293*[#   9]+0.142*[#   4]+0.097*[#  21]+0.097*[#  25]
          +0.047*[#   2]+0.008*[#   8]+0.008*[#  12]+0.003*[#  22]+0.003*[#  26]
          +0.001*[#  16]+0.001*[#  20]+0.001*[#  24]+0.001*[#  28]
    |psi|^2 = 0.996
==== e(   3) =   -32.59044 eV ==== 
     psi = 0.293*[#  21]+0.293*[#  25]+0.142*[#   2]+0.097*[#   5]+0.097*[#   9]
          +0.047*[#   4]+0.008*[#  22]+0.008*[#  26]+0.003*[#   8]+0.003*[#  12]
          +0.001*[#   6]+0.001*[#  10]+0.001*[#  14]+0.001*[#  18]
    |psi|^2 = 0.996
==== e(   4) =   -32.59044 eV ==== 
     psi = 0.389*[#  13]+0.389*[#  17]+0.189*[#   3]+0.011*[#  15]+0.011*[#  19]
          +0.001*[#   7]+0.001*[#  11]+0.001*[#  23]+0.001*[#  27]
    |psi|^2 = 0.996
==== e(   5) =   -31.29843 eV ==== 
     psi = 0.248*[#   5]+0.248*[#   9]+0.243*[#  21]+0.243*[#  25]+0.003*[#   8]
          +0.003*[#  12]+0.003*[#  22]+0.003*[#  26]
    |psi|^2 = 0.993
==== e(   6) =   -31.29843 eV ==== 
     psi = 0.328*[#  13]+0.328*[#  17]+0.085*[#  21]+0.085*[#  25]+0.079*[#   5]
          +0.079*[#   9]+0.004*[#  15]+0.004*[#  19]
    |psi|^2 = 0.993
==== e(   7) =   -20.07711 eV ==== 
     psi = 0.222*[#   1]+0.071*[#   8]+0.071*[#  12]+0.071*[#  15]+0.071*[#  19]
          +0.071*[#  22]+0.071*[#  26]+0.056*[#   5]+0.056*[#   9]+0.056*[#  13]
          +0.056*[#  17]+0.056*[#  21]+0.056*[#  25]
    |psi|^2 = 0.987
==== e(   8) =   -16.13835 eV ==== 
     psi = 0.278*[#  22]+0.278*[#  26]+0.178*[#   2]+0.069*[#  21]+0.069*[#  25]
          +0.026*[#   6]+0.026*[#  10]+0.026*[#  14]+0.026*[#  18]+0.001*[#   8]
          +0.001*[#  12]
    |psi|^2 = 0.981
==== e(   9) =   -16.13835 eV ==== 
     psi = 0.277*[#   8]+0.277*[#  12]+0.178*[#   4]+0.069*[#   5]+0.069*[#   9]
          +0.026*[#  16]+0.026*[#  20]+0.026*[#  24]+0.026*[#  28]+0.001*[#  22]
          +0.001*[#  26]
    |psi|^2 = 0.981
==== e(  10) =   -16.13835 eV ==== 
     psi = 0.279*[#  15]+0.279*[#  19]+0.178*[#   3]+0.069*[#  13]+0.069*[#  17]
          +0.027*[#   7]+0.027*[#  11]+0.027*[#  23]+0.027*[#  27]
    |psi|^2 = 0.981
==== e(  11) =   -13.10112 eV ==== 
     psi = 0.240*[#   6]+0.240*[#  10]+0.240*[#  24]+0.240*[#  28]+0.002*[#  14]
          +0.002*[#  18]+0.002*[#  23]+0.002*[#  27]
    |psi|^2 = 0.966
==== e(  12) =   -13.10112 eV ==== 
     psi = 0.209*[#  14]+0.209*[#  18]+0.209*[#  23]+0.209*[#  27]+0.031*[#   7]
          +0.031*[#  11]+0.031*[#  16]+0.031*[#  20]+0.002*[#   6]+0.002*[#  10]
          +0.002*[#  24]+0.002*[#  28]
    |psi|^2 = 0.966
==== e(  13) =   -13.10112 eV ==== 
     psi = 0.211*[#   7]+0.211*[#  11]+0.211*[#  16]+0.211*[#  20]+0.031*[#  14]
          +0.031*[#  18]+0.031*[#  23]+0.031*[#  27]
    |psi|^2 = 0.966
==== e(  14) =   -12.62159 eV ==== 
     psi = 0.273*[#  22]+0.273*[#  26]+0.198*[#   8]+0.198*[#  12]+0.006*[#  15]
          +0.006*[#  19]+0.004*[#  21]+0.004*[#  25]+0.003*[#   5]+0.003*[#   9]
          
    |psi|^2 = 0.968
==== e(  15) =   -12.62159 eV ==== 
     psi = 0.312*[#  15]+0.312*[#  19]+0.120*[#   8]+0.120*[#  12]+0.045*[#  22]
          +0.045*[#  26]+0.004*[#  13]+0.004*[#  17]+0.002*[#   5]+0.002*[#   9]
          
    |psi|^2 = 0.968
==== e(  16) =   -10.68478 eV ==== 
     psi = 0.203*[#   7]+0.203*[#  11]+0.203*[#  23]+0.203*[#  27]+0.089*[#  15]
          +0.089*[#  19]+0.002*[#   3]
    |psi|^2 = 0.994
==== e(  17) =   -10.68478 eV ==== 
     psi = 0.201*[#  16]+0.201*[#  20]+0.201*[#  24]+0.201*[#  28]+0.089*[#   8]
          +0.089*[#  12]+0.002*[#   4]+0.001*[#   6]+0.001*[#  10]+0.001*[#  14]
          +0.001*[#  18]
    |psi|^2 = 0.994
==== e(  18) =   -10.68478 eV ==== 
     psi = 0.202*[#   6]+0.202*[#  10]+0.202*[#  14]+0.202*[#  18]+0.089*[#  22]
          +0.089*[#  26]+0.002*[#   2]+0.001*[#  16]+0.001*[#  20]+0.001*[#  24]
          +0.001*[#  28]
    |psi|^2 = 0.994
==== e(  19) =   -10.52250 eV ==== 
     psi = 0.248*[#   7]+0.248*[#  11]+0.248*[#  23]+0.248*[#  27]+0.001*[#  16]
          +0.001*[#  20]+0.001*[#  24]+0.001*[#  28]
    |psi|^2 = 0.995
==== e(  20) =   -10.52250 eV ==== 
     psi = 0.192*[#  16]+0.192*[#  20]+0.192*[#  24]+0.192*[#  28]+0.056*[#   6]
          +0.056*[#  10]+0.056*[#  14]+0.056*[#  18]
    |psi|^2 = 0.995
==== e(  21) =   -10.52250 eV ==== 
     psi = 0.193*[#   6]+0.193*[#  10]+0.193*[#  14]+0.193*[#  18]+0.056*[#  16]
          +0.056*[#  20]+0.056*[#  24]+0.056*[#  28]
    |psi|^2 = 0.995
==== e(  22) =    -9.31420 eV ==== 
     psi = 0.248*[#   6]+0.248*[#  10]+0.248*[#  24]+0.248*[#  28]+0.001*[#  14]
          +0.001*[#  18]+0.001*[#  23]+0.001*[#  27]
    |psi|^2 = 0.998
==== e(  23) =    -9.31420 eV ==== 
     psi = 0.248*[#  14]+0.248*[#  18]+0.248*[#  23]+0.248*[#  27]+0.001*[#   6]
          +0.001*[#  10]+0.001*[#  24]+0.001*[#  28]
    |psi|^2 = 0.998
==== e(  24) =    -9.31420 eV ==== 
     psi = 0.250*[#   7]+0.250*[#  11]+0.250*[#  16]+0.250*[#  20]
    |psi|^2 = 0.998
==== e(  25) =    -1.95261 eV ==== 
     psi = 0.379*[#   1]+0.058*[#   8]+0.058*[#  12]+0.058*[#  15]+0.058*[#  19]
          +0.058*[#  22]+0.058*[#  26]+0.005*[#   5]+0.005*[#   9]+0.005*[#  13]
          +0.005*[#  17]+0.005*[#  21]+0.005*[#  25]
    |psi|^2 = 0.754
==== e(  26) =    -0.94458 eV ==== 
     psi = 0.090*[#   1]+0.016*[#   8]+0.016*[#  12]+0.016*[#  15]+0.016*[#  19]
          +0.016*[#  22]+0.016*[#  26]+0.001*[#   5]+0.001*[#   9]+0.001*[#  13]
          +0.001*[#  17]+0.001*[#  21]+0.001*[#  25]
    |psi|^2 = 0.193
==== e(  27) =     0.23562 eV ==== 

    |psi|^2 = 0.000
==== e(  28) =     0.26631 eV ==== 
     psi = 0.014*[#   3]+0.003*[#   2]+0.003*[#   4]
    |psi|^2 = 0.025
==== e(  29) =     0.26631 eV ==== 
     psi = 0.016*[#   2]+0.003*[#   3]
    |psi|^2 = 0.025

Lowdin Charges: 

     Atom #   1: total charge =   3.2061, s =  0.9872, 
     Atom #   1: total charge =   3.2061, p =  2.2189, pz=  0.7396, px=  0.7396, py=  0.7396, 
     Atom #   2: total charge =   7.3640, s =  1.9024, 
     Atom #   2: total charge =   7.3640, p =  5.4615, pz=  1.9419, px=  1.9419, py=  1.5777, 
     Atom #   3: total charge =   7.3640, s =  1.9024, 
     Atom #   3: total charge =   7.3640, p =  5.4615, pz=  1.9419, px=  1.9419, py=  1.5777, 
     Atom #   4: total charge =   7.3640, s =  1.9024, 
     Atom #   4: total charge =   7.3640, p =  5.4615, pz=  1.9419, px=  1.5777, py=  1.9419, 
     Atom #   5: total charge =   7.3640, s =  1.9024, 
     Atom #   5: total charge =   7.3640, p =  5.4615, pz=  1.9419, px=  1.5777, py=  1.9419, 
     Atom #   6: total charge =   7.3640, s =  1.9024, 
     Atom #   6: total charge =   7.3640, p =  5.4615, pz=  1.5777, px=  1.9419, py=  1.9419, 
     Atom #   7: total charge =   7.3640, s =  1.9024, 
     Atom #   7: total charge =   7.3640, p =  5.4615, pz=  1.5777, px=  1.9419, py=  1.9419, 
     Spilling Parameter:   0.0127

 Printing coefficients

 k =   0.0000000000  0.0000000000  0.0000000000
==== e(   1) =   -35.69384 eV ==== 
     Coe = -.522 + 0.000i *[#   1]
     Coe = -.000 + 0.000i *[#   2]
     Coe = 0.000 + 0.000i *[#   3]
     Coe = 0.000 + 0.000i *[#   4]
     Coe = -.322 + 0.000i *[#   5]
     Coe = -.000 + 0.000i *[#   6]
     Coe = 0.000 + 0.000i *[#   7]
     Coe = -.129 + 0.000i *[#   8]
     Coe = -.322 + 0.000i *[#   9]
     Coe = 0.000 + 0.000i *[#  10]
     Coe = 0.000 + 0.000i *[#  11]
     Coe = 0.129 + 0.000i *[#  12]
     Coe = -.322 + 0.000i *[#  13]
     Coe = -.000 + 0.000i *[#  14]
     Coe = 0.129 + 0.000i *[#  15]
     Coe = 0.000 + 0.000i *[#  16]
     Coe = -.322 + 0.000i *[#  17]
     Coe = -.000 + 0.000i *[#  18]
     Coe = -.129 + 0.000i *[#  19]
     Coe = 0.000 + 0.000i *[#  20]
     Coe = -.322 + 0.000i *[#  21]
     Coe = -.129 + 0.000i *[#  22]
     Coe = 0.000 + 0.000i *[#  23]
     Coe = 0.000 + 0.000i *[#  24]
     Coe = -.322 + 0.000i *[#  25]
     Coe = 0.129 + 0.000i *[#  26]
     Coe = 0.000 + 0.000i *[#  27]
     Coe = 0.000 + 0.000i *[#  28]

==== e(   2) =   -32.59044 eV ==== 
     Coe = 0.000 + 0.000i *[#   1]
     Coe = -.216 + 0.000i *[#   2]
     Coe = 0.001 + 0.000i *[#   3]
     Coe = 0.377 + 0.000i *[#   4]
     Coe = -.541 + 0.000i *[#   5]
     Coe = -.019 + 0.000i *[#   6]
     Coe = 0.000 + 0.000i *[#   7]
     Coe = -.091 + 0.000i *[#   8]
     Coe = 0.541 + 0.000i *[#   9]
     Coe = -.019 + 0.000i *[#  10]
     Coe = 0.000 + 0.000i *[#  11]
     Coe = -.091 + 0.000i *[#  12]
     Coe = 0.002 + 0.000i *[#  13]
     Coe = -.019 + 0.000i *[#  14]
     Coe = -.000 + 0.000i *[#  15]
     Coe = 0.032 + 0.000i *[#  16]
     Coe = -.002 + 0.000i *[#  17]
     Coe = -.019 + 0.000i *[#  18]
     Coe = -.000 + 0.000i *[#  19]
     Coe = 0.032 + 0.000i *[#  20]
     Coe = 0.311 + 0.000i *[#  21]
     Coe = 0.052 + 0.000i *[#  22]
     Coe = 0.000 + 0.000i *[#  23]
     Coe = 0.032 + 0.000i *[#  24]
     Coe = -.311 + 0.000i *[#  25]
     Coe = 0.052 + 0.000i *[#  26]
     Coe = 0.000 + 0.000i *[#  27]
     Coe = 0.032 + 0.000i *[#  28]

==== e(   3) =   -32.59044 eV ==== 
     Coe = -.000 + 0.000i *[#   1]
     Coe = -.377 + 0.000i *[#   2]
     Coe = -.004 + 0.000i *[#   3]
     Coe = -.216 + 0.000i *[#   4]
     Coe = 0.311 + 0.000i *[#   5]
     Coe = -.032 + 0.000i *[#   6]
     Coe = -.000 + 0.000i *[#   7]
     Coe = 0.052 + 0.000i *[#   8]
     Coe = -.311 + 0.000i *[#   9]
     Coe = -.032 + 0.000i *[#  10]
     Coe = -.000 + 0.000i *[#  11]
     Coe = 0.052 + 0.000i *[#  12]
     Coe = -.006 + 0.000i *[#  13]
     Coe = -.032 + 0.000i *[#  14]
     Coe = 0.001 + 0.000i *[#  15]
     Coe = -.019 + 0.000i *[#  16]
     Coe = 0.006 + 0.000i *[#  17]
     Coe = -.032 + 0.000i *[#  18]
     Coe = 0.001 + 0.000i *[#  19]
     Coe = -.019 + 0.000i *[#  20]
     Coe = 0.541 + 0.000i *[#  21]
     Coe = 0.091 + 0.000i *[#  22]
     Coe = -.000 + 0.000i *[#  23]
     Coe = -.019 + 0.000i *[#  24]
     Coe = -.541 + 0.000i *[#  25]
     Coe = 0.091 + 0.000i *[#  26]
     Coe = -.000 + 0.000i *[#  27]
     Coe = -.019 + 0.000i *[#  28]

==== e(   4) =   -32.59044 eV ==== 
     Coe = -.000 + 0.000i *[#   1]
     Coe = 0.003 + 0.000i *[#   2]
     Coe = -.435 + 0.000i *[#   3]
     Coe = 0.003 + 0.000i *[#   4]
     Coe = -.005 + 0.000i *[#   5]
     Coe = 0.000 + 0.000i *[#   6]
     Coe = -.037 + 0.000i *[#   7]
     Coe = -.001 + 0.000i *[#   8]
     Coe = 0.005 + 0.000i *[#   9]
     Coe = 0.000 + 0.000i *[#  10]
     Coe = -.037 + 0.000i *[#  11]
     Coe = -.001 + 0.000i *[#  12]
     Coe = -.624 + 0.000i *[#  13]
     Coe = 0.000 + 0.000i *[#  14]
     Coe = 0.105 + 0.000i *[#  15]
     Coe = 0.000 + 0.000i *[#  16]
     Coe = 0.624 + 0.000i *[#  17]
     Coe = 0.000 + 0.000i *[#  18]
     Coe = 0.105 + 0.000i *[#  19]
     Coe = 0.000 + 0.000i *[#  20]
     Coe = -.004 + 0.000i *[#  21]
     Coe = -.001 + 0.000i *[#  22]
     Coe = -.037 + 0.000i *[#  23]
     Coe = 0.000 + 0.000i *[#  24]
     Coe = 0.004 + 0.000i *[#  25]
     Coe = -.001 + 0.000i *[#  26]
     Coe = -.037 + 0.000i *[#  27]
     Coe = 0.000 + 0.000i *[#  28]

==== e(   5) =   -31.29843 eV ==== 
     Coe = 0.000 + 0.000i *[#   1]
     Coe = -.000 + 0.000i *[#   2]
     Coe = 0.000 + 0.000i *[#   3]
     Coe = -.000 + 0.000i *[#   4]
     Coe = -.498 + 0.000i *[#   5]
     Coe = -.000 + 0.000i *[#   6]
     Coe = 0.000 + 0.000i *[#   7]
     Coe = -.052 + 0.000i *[#   8]
     Coe = -.498 + 0.000i *[#   9]
     Coe = 0.000 + 0.000i *[#  10]
     Coe = 0.000 + 0.000i *[#  11]
     Coe = 0.052 + 0.000i *[#  12]
     Coe = 0.006 + 0.000i *[#  13]
     Coe = -.000 + 0.000i *[#  14]
     Coe = -.001 + 0.000i *[#  15]
     Coe = -.000 + 0.000i *[#  16]
     Coe = 0.006 + 0.000i *[#  17]
     Coe = -.000 + 0.000i *[#  18]
     Coe = 0.001 + 0.000i *[#  19]
     Coe = -.000 + 0.000i *[#  20]
     Coe = 0.493 + 0.000i *[#  21]
     Coe = 0.051 + 0.000i *[#  22]
     Coe = -.000 + 0.000i *[#  23]
     Coe = -.000 + 0.000i *[#  24]
     Coe = 0.493 + 0.000i *[#  25]
     Coe = -.051 + 0.000i *[#  26]
     Coe = -.000 + 0.000i *[#  27]
     Coe = -.000 + 0.000i *[#  28]

==== e(   6) =   -31.29843 eV ==== 
     Coe = 0.000 + 0.000i *[#   1]
     Coe = 0.000 + 0.000i *[#   2]
     Coe = 0.000 + 0.000i *[#   3]
     Coe = -.000 + 0.000i *[#   4]
     Coe = -.281 + 0.000i *[#   5]
     Coe = -.000 + 0.000i *[#   6]
     Coe = 0.000 + 0.000i *[#   7]
     Coe = -.029 + 0.000i *[#   8]
     Coe = -.281 + 0.000i *[#   9]
     Coe = 0.000 + 0.000i *[#  10]
     Coe = 0.000 + 0.000i *[#  11]
     Coe = 0.029 + 0.000i *[#  12]
     Coe = 0.572 + 0.000i *[#  13]
     Coe = 0.000 + 0.000i *[#  14]
     Coe = -.059 + 0.000i *[#  15]
     Coe = -.000 + 0.000i *[#  16]
     Coe = 0.572 + 0.000i *[#  17]
     Coe = 0.000 + 0.000i *[#  18]
     Coe = 0.059 + 0.000i *[#  19]
     Coe = -.000 + 0.000i *[#  20]
     Coe = -.291 + 0.000i *[#  21]
     Coe = -.030 + 0.000i *[#  22]
     Coe = 0.000 + 0.000i *[#  23]
     Coe = -.000 + 0.000i *[#  24]
     Coe = -.291 + 0.000i *[#  25]
     Coe = 0.030 + 0.000i *[#  26]
     Coe = 0.000 + 0.000i *[#  27]
     Coe = 0.000 + 0.000i *[#  28]

==== e(   7) =   -20.07711 eV ==== 
     Coe = 0.471 + 0.000i *[#   1]
     Coe = -.000 + 0.000i *[#   2]
     Coe = -.000 + 0.000i *[#   3]
     Coe = -.000 + 0.000i *[#   4]
     Coe = -.238 + 0.000i *[#   5]
     Coe = -.000 + 0.000i *[#   6]
     Coe = -.000 + 0.000i *[#   7]
     Coe = 0.267 + 0.000i *[#   8]
     Coe = -.238 + 0.000i *[#   9]
     Coe = 0.000 + 0.000i *[#  10]
     Coe = -.000 + 0.000i *[#  11]
     Coe = -.267 + 0.000i *[#  12]
     Coe = -.238 + 0.000i *[#  13]
     Coe = -.000 + 0.000i *[#  14]
     Coe = -.267 + 0.000i *[#  15]
     Coe = 0.000 + 0.000i *[#  16]
     Coe = -.238 + 0.000i *[#  17]
     Coe = -.000 + 0.000i *[#  18]
     Coe = 0.267 + 0.000i *[#  19]
     Coe = 0.000 + 0.000i *[#  20]
     Coe = -.238 + 0.000i *[#  21]
     Coe = 0.267 + 0.000i *[#  22]
     Coe = 0.000 + 0.000i *[#  23]
     Coe = -.000 + 0.000i *[#  24]
     Coe = -.238 + 0.000i *[#  25]
     Coe = -.267 + 0.000i *[#  26]
     Coe = -.000 + 0.000i *[#  27]
     Coe = 0.000 + 0.000i *[#  28]

==== e(   8) =   -16.13835 eV ==== 
     Coe = 0.000 + 0.000i *[#   1]
     Coe = 0.422 + 0.000i *[#   2]
     Coe = -.006 + 0.000i *[#   3]
     Coe = -.029 + 0.000i *[#   4]
     Coe = -.018 + 0.000i *[#   5]
     Coe = 0.163 + 0.000i *[#   6]
     Coe = -.002 + 0.000i *[#   7]
     Coe = 0.036 + 0.000i *[#   8]
     Coe = 0.018 + 0.000i *[#   9]
     Coe = 0.163 + 0.000i *[#  10]
     Coe = -.002 + 0.000i *[#  11]
     Coe = 0.036 + 0.000i *[#  12]
     Coe = 0.004 + 0.000i *[#  13]
     Coe = 0.163 + 0.000i *[#  14]
     Coe = 0.007 + 0.000i *[#  15]
     Coe = -.011 + 0.000i *[#  16]
     Coe = -.004 + 0.000i *[#  17]
     Coe = 0.163 + 0.000i *[#  18]
     Coe = 0.007 + 0.000i *[#  19]
     Coe = -.011 + 0.000i *[#  20]
     Coe = 0.262 + 0.000i *[#  21]
     Coe = -.527 + 0.000i *[#  22]
     Coe = -.002 + 0.000i *[#  23]
     Coe = -.011 + 0.000i *[#  24]
     Coe = -.262 + 0.000i *[#  25]
     Coe = -.527 + 0.000i *[#  26]
     Coe = -.002 + 0.000i *[#  27]
     Coe = -.011 + 0.000i *[#  28]

==== e(   9) =   -16.13835 eV ==== 
     Coe = 0.000 + 0.000i *[#   1]
     Coe = 0.029 + 0.000i *[#   2]
     Coe = 0.018 + 0.000i *[#   3]
     Coe = 0.421 + 0.000i *[#   4]
     Coe = 0.262 + 0.000i *[#   5]
     Coe = 0.011 + 0.000i *[#   6]
     Coe = 0.007 + 0.000i *[#   7]
     Coe = -.527 + 0.000i *[#   8]
     Coe = -.262 + 0.000i *[#   9]
     Coe = 0.011 + 0.000i *[#  10]
     Coe = 0.007 + 0.000i *[#  11]
     Coe = -.527 + 0.000i *[#  12]
     Coe = -.011 + 0.000i *[#  13]
     Coe = 0.011 + 0.000i *[#  14]
     Coe = -.023 + 0.000i *[#  15]
     Coe = 0.162 + 0.000i *[#  16]
     Coe = 0.011 + 0.000i *[#  17]
     Coe = 0.011 + 0.000i *[#  18]
     Coe = -.023 + 0.000i *[#  19]
     Coe = 0.162 + 0.000i *[#  20]
     Coe = 0.018 + 0.000i *[#  21]
     Coe = -.036 + 0.000i *[#  22]
     Coe = 0.007 + 0.000i *[#  23]
     Coe = 0.162 + 0.000i *[#  24]
     Coe = -.018 + 0.000i *[#  25]
     Coe = -.036 + 0.000i *[#  26]
     Coe = 0.007 + 0.000i *[#  27]
     Coe = 0.162 + 0.000i *[#  28]

==== e(  10) =   -16.13835 eV ==== 
     Coe = -.000 + 0.000i *[#   1]
     Coe = -.004 + 0.000i *[#   2]
     Coe = -.422 + 0.000i *[#   3]
     Coe = 0.019 + 0.000i *[#   4]
     Coe = 0.012 + 0.000i *[#   5]
     Coe = -.002 + 0.000i *[#   6]
     Coe = -.163 + 0.000i *[#   7]
     Coe = -.023 + 0.000i *[#   8]
     Coe = -.012 + 0.000i *[#   9]
     Coe = -.002 + 0.000i *[#  10]
     Coe = -.163 + 0.000i *[#  11]
     Coe = -.023 + 0.000i *[#  12]
     Coe = 0.262 + 0.000i *[#  13]
     Coe = -.002 + 0.000i *[#  14]
     Coe = 0.528 + 0.000i *[#  15]
     Coe = 0.007 + 0.000i *[#  16]
     Coe = -.262 + 0.000i *[#  17]
     Coe = -.002 + 0.000i *[#  18]
     Coe = 0.528 + 0.000i *[#  19]
     Coe = 0.007 + 0.000i *[#  20]
     Coe = -.003 + 0.000i *[#  21]
     Coe = 0.006 + 0.000i *[#  22]
     Coe = -.163 + 0.000i *[#  23]
     Coe = 0.007 + 0.000i *[#  24]
     Coe = 0.003 + 0.000i *[#  25]
     Coe = 0.006 + 0.000i *[#  26]
     Coe = -.163 + 0.000i *[#  27]
     Coe = 0.007 + 0.000i *[#  28]

==== e(  11) =   -13.10112 eV ==== 
     Coe = -.000 + 0.000i *[#   1]
     Coe = -.000 + 0.000i *[#   2]
     Coe = 0.000 + 0.000i *[#   3]
     Coe = 0.000 + 0.000i *[#   4]
     Coe = -.000 + 0.000i *[#   5]
     Coe = 0.490 + 0.000i *[#   6]
     Coe = -.006 + 0.000i *[#   7]
     Coe = -.000 + 0.000i *[#   8]
     Coe = -.000 + 0.000i *[#   9]
     Coe = -.490 + 0.000i *[#  10]
     Coe = 0.006 + 0.000i *[#  11]
     Coe = -.000 + 0.000i *[#  12]
     Coe = 0.000 + 0.000i *[#  13]
     Coe = -.041 + 0.000i *[#  14]
     Coe = 0.000 + 0.000i *[#  15]
     Coe = 0.006 + 0.000i *[#  16]
     Coe = 0.000 + 0.000i *[#  17]
     Coe = 0.041 + 0.000i *[#  18]
     Coe = -.000 + 0.000i *[#  19]
     Coe = -.006 + 0.000i *[#  20]
     Coe = -.000 + 0.000i *[#  21]
     Coe = 0.000 + 0.000i *[#  22]
     Coe = 0.041 + 0.000i *[#  23]
     Coe = 0.490 + 0.000i *[#  24]
     Coe = -.000 + 0.000i *[#  25]
     Coe = 0.000 + 0.000i *[#  26]
     Coe = -.041 + 0.000i *[#  27]
     Coe = -.490 + 0.000i *[#  28]

==== e(  12) =   -13.10112 eV ==== 
     Coe = 0.000 + 0.000i *[#   1]
     Coe = 0.000 + 0.000i *[#   2]
     Coe = -.000 + 0.000i *[#   3]
     Coe = -.000 + 0.000i *[#   4]
     Coe = -.000 + 0.000i *[#   5]
     Coe = 0.040 + 0.000i *[#   6]
     Coe = 0.175 + 0.000i *[#   7]
     Coe = 0.000 + 0.000i *[#   8]
     Coe = 0.000 + 0.000i *[#   9]
     Coe = -.040 + 0.000i *[#  10]
     Coe = -.175 + 0.000i *[#  11]
     Coe = 0.000 + 0.000i *[#  12]
     Coe = 0.000 + 0.000i *[#  13]
     Coe = 0.457 + 0.000i *[#  14]
     Coe = 0.000 + 0.000i *[#  15]
     Coe = -.175 + 0.000i *[#  16]
     Coe = -.000 + 0.000i *[#  17]
     Coe = -.457 + 0.000i *[#  18]
     Coe = 0.000 + 0.000i *[#  19]
     Coe = 0.175 + 0.000i *[#  20]
     Coe = -.000 + 0.000i *[#  21]
     Coe = -.000 + 0.000i *[#  22]
     Coe = -.457 + 0.000i *[#  23]
     Coe = 0.040 + 0.000i *[#  24]
     Coe = -.000 + 0.000i *[#  25]
     Coe = -.000 + 0.000i *[#  26]
     Coe = 0.457 + 0.000i *[#  27]
     Coe = -.040 + 0.000i *[#  28]

==== e(  13) =   -13.10112 eV ==== 
     Coe = -.000 + 0.000i *[#   1]
     Coe = 0.000 + 0.000i *[#   2]
     Coe = 0.000 + 0.000i *[#   3]
     Coe = 0.000 + 0.000i *[#   4]
     Coe = 0.000 + 0.000i *[#   5]
     Coe = 0.009 + 0.000i *[#   6]
     Coe = -.459 + 0.000i *[#   7]
     Coe = -.000 + 0.000i *[#   8]
     Coe = -.000 + 0.000i *[#   9]
     Coe = -.009 + 0.000i *[#  10]
     Coe = 0.459 + 0.000i *[#  11]
     Coe = -.000 + 0.000i *[#  12]
     Coe = -.000 + 0.000i *[#  13]
     Coe = 0.175 + 0.000i *[#  14]
     Coe = -.000 + 0.000i *[#  15]
     Coe = 0.459 + 0.000i *[#  16]
     Coe = -.000 + 0.000i *[#  17]
     Coe = -.175 + 0.000i *[#  18]
     Coe = -.000 + 0.000i *[#  19]
     Coe = -.459 + 0.000i *[#  20]
     Coe = 0.000 + 0.000i *[#  21]
     Coe = -.000 + 0.000i *[#  22]
     Coe = -.175 + 0.000i *[#  23]
     Coe = 0.009 + 0.000i *[#  24]
     Coe = 0.000 + 0.000i *[#  25]
     Coe = 0.000 + 0.000i *[#  26]
     Coe = 0.175 + 0.000i *[#  27]
     Coe = -.009 + 0.000i *[#  28]

==== e(  14) =   -12.62159 eV ==== 
     Coe = -.000 + 0.000i *[#   1]
     Coe = 0.000 + 0.000i *[#   2]
     Coe = -.000 + 0.000i *[#   3]
     Coe = -.000 + 0.000i *[#   4]
     Coe = 0.053 + 0.000i *[#   5]
     Coe = -.000 + 0.000i *[#   6]
     Coe = -.000 + 0.000i *[#   7]
     Coe = -.445 + 0.000i *[#   8]
     Coe = 0.053 + 0.000i *[#   9]
     Coe = -.000 + 0.000i *[#  10]
     Coe = 0.000 + 0.000i *[#  11]
     Coe = 0.445 + 0.000i *[#  12]
     Coe = 0.009 + 0.000i *[#  13]
     Coe = 0.000 + 0.000i *[#  14]
     Coe = 0.078 + 0.000i *[#  15]
     Coe = 0.000 + 0.000i *[#  16]
     Coe = 0.009 + 0.000i *[#  17]
     Coe = -.000 + 0.000i *[#  18]
     Coe = -.078 + 0.000i *[#  19]
     Coe = -.000 + 0.000i *[#  20]
     Coe = -.062 + 0.000i *[#  21]
     Coe = 0.523 + 0.000i *[#  22]
     Coe = -.000 + 0.000i *[#  23]
     Coe = -.000 + 0.000i *[#  24]
     Coe = -.062 + 0.000i *[#  25]
     Coe = -.523 + 0.000i *[#  26]
     Coe = -.000 + 0.000i *[#  27]
     Coe = -.000 + 0.000i *[#  28]

==== e(  15) =   -12.62159 eV ==== 
     Coe = 0.000 + 0.000i *[#   1]
     Coe = -.000 + 0.000i *[#   2]
     Coe = 0.000 + 0.000i *[#   3]
     Coe = -.000 + 0.000i *[#   4]
     Coe = 0.041 + 0.000i *[#   5]
     Coe = 0.000 + 0.000i *[#   6]
     Coe = 0.000 + 0.000i *[#   7]
     Coe = -.347 + 0.000i *[#   8]
     Coe = 0.041 + 0.000i *[#   9]
     Coe = -.000 + 0.000i *[#  10]
     Coe = 0.000 + 0.000i *[#  11]
     Coe = 0.347 + 0.000i *[#  12]
     Coe = -.066 + 0.000i *[#  13]
     Coe = 0.000 + 0.000i *[#  14]
     Coe = -.559 + 0.000i *[#  15]
     Coe = -.000 + 0.000i *[#  16]
     Coe = -.066 + 0.000i *[#  17]
     Coe = 0.000 + 0.000i *[#  18]
     Coe = 0.559 + 0.000i *[#  19]
     Coe = -.000 + 0.000i *[#  20]
     Coe = 0.025 + 0.000i *[#  21]
     Coe = -.212 + 0.000i *[#  22]
     Coe = 0.000 + 0.000i *[#  23]
     Coe = 0.000 + 0.000i *[#  24]
     Coe = 0.025 + 0.000i *[#  25]
     Coe = 0.212 + 0.000i *[#  26]
     Coe = 0.000 + 0.000i *[#  27]
     Coe = -.000 + 0.000i *[#  28]

==== e(  16) =   -10.68478 eV ==== 
     Coe = 0.000 + 0.000i *[#   1]
     Coe = 0.001 + 0.000i *[#   2]
     Coe = -.046 + 0.000i *[#   3]
     Coe = -.002 + 0.000i *[#   4]
     Coe = -.001 + 0.000i *[#   5]
     Coe = 0.006 + 0.000i *[#   6]
     Coe = -.450 + 0.000i *[#   7]
     Coe = -.014 + 0.000i *[#   8]
     Coe = 0.001 + 0.000i *[#   9]
     Coe = 0.006 + 0.000i *[#  10]
     Coe = -.450 + 0.000i *[#  11]
     Coe = -.014 + 0.000i *[#  12]
     Coe = 0.017 + 0.000i *[#  13]
     Coe = 0.006 + 0.000i *[#  14]
     Coe = -.299 + 0.000i *[#  15]
     Coe = -.021 + 0.000i *[#  16]
     Coe = -.017 + 0.000i *[#  17]
     Coe = 0.006 + 0.000i *[#  18]
     Coe = -.299 + 0.000i *[#  19]
     Coe = -.021 + 0.000i *[#  20]
     Coe = 0.000 + 0.000i *[#  21]
     Coe = 0.004 + 0.000i *[#  22]
     Coe = -.450 + 0.000i *[#  23]
     Coe = -.021 + 0.000i *[#  24]
     Coe = -.000 + 0.000i *[#  25]
     Coe = 0.004 + 0.000i *[#  26]
     Coe = -.450 + 0.000i *[#  27]
     Coe = -.021 + 0.000i *[#  28]

==== e(  17) =   -10.68478 eV ==== 
     Coe = -.000 + 0.000i *[#   1]
     Coe = 0.004 + 0.000i *[#   2]
     Coe = -.002 + 0.000i *[#   3]
     Coe = 0.046 + 0.000i *[#   4]
     Coe = 0.017 + 0.000i *[#   5]
     Coe = 0.036 + 0.000i *[#   6]
     Coe = -.020 + 0.000i *[#   7]
     Coe = 0.298 + 0.000i *[#   8]
     Coe = -.017 + 0.000i *[#   9]
     Coe = 0.036 + 0.000i *[#  10]
     Coe = -.020 + 0.000i *[#  11]
     Coe = 0.298 + 0.000i *[#  12]
     Coe = 0.001 + 0.000i *[#  13]
     Coe = 0.036 + 0.000i *[#  14]
     Coe = -.013 + 0.000i *[#  15]
     Coe = 0.449 + 0.000i *[#  16]
     Coe = -.001 + 0.000i *[#  17]
     Coe = 0.036 + 0.000i *[#  18]
     Coe = -.013 + 0.000i *[#  19]
     Coe = 0.449 + 0.000i *[#  20]
     Coe = 0.001 + 0.000i *[#  21]
     Coe = 0.024 + 0.000i *[#  22]
     Coe = -.020 + 0.000i *[#  23]
     Coe = 0.449 + 0.000i *[#  24]
     Coe = -.001 + 0.000i *[#  25]
     Coe = 0.024 + 0.000i *[#  26]
     Coe = -.020 + 0.000i *[#  27]
     Coe = 0.449 + 0.000i *[#  28]

==== e(  18) =   -10.68478 eV ==== 
     Coe = 0.000 + 0.000i *[#   1]
     Coe = -.046 + 0.000i *[#   2]
     Coe = -.001 + 0.000i *[#   3]
     Coe = 0.004 + 0.000i *[#   4]
     Coe = 0.001 + 0.000i *[#   5]
     Coe = -.449 + 0.000i *[#   6]
     Coe = -.008 + 0.000i *[#   7]
     Coe = 0.024 + 0.000i *[#   8]
     Coe = -.001 + 0.000i *[#   9]
     Coe = -.449 + 0.000i *[#  10]
     Coe = -.008 + 0.000i *[#  11]
     Coe = 0.024 + 0.000i *[#  12]
     Coe = 0.000 + 0.000i *[#  13]
     Coe = -.449 + 0.000i *[#  14]
     Coe = -.005 + 0.000i *[#  15]
     Coe = 0.036 + 0.000i *[#  16]
     Coe = -.000 + 0.000i *[#  17]
     Coe = -.449 + 0.000i *[#  18]
     Coe = -.005 + 0.000i *[#  19]
     Coe = 0.036 + 0.000i *[#  20]
     Coe = -.017 + 0.000i *[#  21]
     Coe = -.298 + 0.000i *[#  22]
     Coe = -.008 + 0.000i *[#  23]
     Coe = 0.036 + 0.000i *[#  24]
     Coe = 0.017 + 0.000i *[#  25]
     Coe = -.298 + 0.000i *[#  26]
     Coe = -.008 + 0.000i *[#  27]
     Coe = 0.036 + 0.000i *[#  28]

==== e(  19) =   -10.52250 eV ==== 
     Coe = 0.000 + 0.000i *[#   1]
     Coe = -.000 + 0.000i *[#   2]
     Coe = -.000 + 0.000i *[#   3]
     Coe = -.000 + 0.000i *[#   4]
     Coe = -.000 + 0.000i *[#   5]
     Coe = -.000 + 0.000i *[#   6]
     Coe = -.498 + 0.000i *[#   7]
     Coe = -.000 + 0.000i *[#   8]
     Coe = 0.000 + 0.000i *[#   9]
     Coe = -.000 + 0.000i *[#  10]
     Coe = -.498 + 0.000i *[#  11]
     Coe = -.000 + 0.000i *[#  12]
     Coe = 0.000 + 0.000i *[#  13]
     Coe = 0.000 + 0.000i *[#  14]
     Coe = -.000 + 0.000i *[#  15]
     Coe = -.032 + 0.000i *[#  16]
     Coe = -.000 + 0.000i *[#  17]
     Coe = 0.000 + 0.000i *[#  18]
     Coe = -.000 + 0.000i *[#  19]
     Coe = -.032 + 0.000i *[#  20]
     Coe = 0.000 + 0.000i *[#  21]
     Coe = -.000 + 0.000i *[#  22]
     Coe = 0.498 + 0.000i *[#  23]
     Coe = 0.032 + 0.000i *[#  24]
     Coe = 0.000 + 0.000i *[#  25]
     Coe = -.000 + 0.000i *[#  26]
     Coe = 0.498 + 0.000i *[#  27]
     Coe = 0.032 + 0.000i *[#  28]

==== e(  20) =   -10.52250 eV ==== 
     Coe = -.000 + 0.000i *[#   1]
     Coe = 0.000 + 0.000i *[#   2]
     Coe = -.000 + 0.000i *[#   3]
     Coe = -.000 + 0.000i *[#   4]
     Coe = -.000 + 0.000i *[#   5]
     Coe = -.237 + 0.000i *[#   6]
     Coe = 0.028 + 0.000i *[#   7]
     Coe = -.000 + 0.000i *[#   8]
     Coe = 0.000 + 0.000i *[#   9]
     Coe = -.237 + 0.000i *[#  10]
     Coe = 0.028 + 0.000i *[#  11]
     Coe = -.000 + 0.000i *[#  12]
     Coe = -.000 + 0.000i *[#  13]
     Coe = 0.237 + 0.000i *[#  14]
     Coe = -.000 + 0.000i *[#  15]
     Coe = -.438 + 0.000i *[#  16]
     Coe = -.000 + 0.000i *[#  17]
     Coe = 0.237 + 0.000i *[#  18]
     Coe = -.000 + 0.000i *[#  19]
     Coe = -.438 + 0.000i *[#  20]
     Coe = 0.000 + 0.000i *[#  21]
     Coe = 0.000 + 0.000i *[#  22]
     Coe = -.028 + 0.000i *[#  23]
     Coe = 0.438 + 0.000i *[#  24]
     Coe = -.000 + 0.000i *[#  25]
     Coe = 0.000 + 0.000i *[#  26]
     Coe = -.028 + 0.000i *[#  27]
     Coe = 0.438 + 0.000i *[#  28]

==== e(  21) =   -10.52250 eV ==== 
     Coe = 0.000 + 0.000i *[#   1]
     Coe = -.000 + 0.000i *[#   2]
     Coe = 0.000 + 0.000i *[#   3]
     Coe = -.000 + 0.000i *[#   4]
     Coe = -.000 + 0.000i *[#   5]
     Coe = 0.439 + 0.000i *[#   6]
     Coe = 0.015 + 0.000i *[#   7]
     Coe = -.000 + 0.000i *[#   8]
     Coe = 0.000 + 0.000i *[#   9]
     Coe = 0.439 + 0.000i *[#  10]
     Coe = 0.015 + 0.000i *[#  11]
     Coe = -.000 + 0.000i *[#  12]
     Coe = 0.000 + 0.000i *[#  13]
     Coe = -.439 + 0.000i *[#  14]
     Coe = -.000 + 0.000i *[#  15]
     Coe = -.236 + 0.000i *[#  16]
     Coe = -.000 + 0.000i *[#  17]
     Coe = -.439 + 0.000i *[#  18]
     Coe = 0.000 + 0.000i *[#  19]
     Coe = -.236 + 0.000i *[#  20]
     Coe = -.000 + 0.000i *[#  21]
     Coe = -.000 + 0.000i *[#  22]
     Coe = -.015 + 0.000i *[#  23]
     Coe = 0.236 + 0.000i *[#  24]
     Coe = 0.000 + 0.000i *[#  25]
     Coe = -.000 + 0.000i *[#  26]
     Coe = -.015 + 0.000i *[#  27]
     Coe = 0.236 + 0.000i *[#  28]

==== e(  22) =    -9.31420 eV ==== 
     Coe = -.000 + 0.000i *[#   1]
     Coe = 0.000 + 0.000i *[#   2]
     Coe = -.000 + 0.000i *[#   3]
     Coe = 0.000 + 0.000i *[#   4]
     Coe = -.000 + 0.000i *[#   5]
     Coe = 0.498 + 0.000i *[#   6]
     Coe = -.007 + 0.000i *[#   7]
     Coe = 0.000 + 0.000i *[#   8]
     Coe = -.000 + 0.000i *[#   9]
     Coe = -.498 + 0.000i *[#  10]
     Coe = 0.007 + 0.000i *[#  11]
     Coe = -.000 + 0.000i *[#  12]
     Coe = 0.000 + 0.000i *[#  13]
     Coe = -.035 + 0.000i *[#  14]
     Coe = -.000 + 0.000i *[#  15]
     Coe = -.007 + 0.000i *[#  16]
     Coe = -.000 + 0.000i *[#  17]
     Coe = 0.035 + 0.000i *[#  18]
     Coe = -.000 + 0.000i *[#  19]
     Coe = 0.007 + 0.000i *[#  20]
     Coe = 0.000 + 0.000i *[#  21]
     Coe = -.000 + 0.000i *[#  22]
     Coe = -.035 + 0.000i *[#  23]
     Coe = -.498 + 0.000i *[#  24]
     Coe = 0.000 + 0.000i *[#  25]
     Coe = -.000 + 0.000i *[#  26]
     Coe = 0.035 + 0.000i *[#  27]
     Coe = 0.498 + 0.000i *[#  28]

==== e(  23) =    -9.31420 eV ==== 
     Coe = 0.000 + 0.000i *[#   1]
     Coe = 0.000 + 0.000i *[#   2]
     Coe = -.000 + 0.000i *[#   3]
     Coe = 0.000 + 0.000i *[#   4]
     Coe = -.000 + 0.000i *[#   5]
     Coe = 0.035 + 0.000i *[#   6]
     Coe = -.007 + 0.000i *[#   7]
     Coe = 0.000 + 0.000i *[#   8]
     Coe = -.000 + 0.000i *[#   9]
     Coe = -.035 + 0.000i *[#  10]
     Coe = 0.007 + 0.000i *[#  11]
     Coe = -.000 + 0.000i *[#  12]
     Coe = -.000 + 0.000i *[#  13]
     Coe = 0.498 + 0.000i *[#  14]
     Coe = -.000 + 0.000i *[#  15]
     Coe = -.007 + 0.000i *[#  16]
     Coe = 0.000 + 0.000i *[#  17]
     Coe = -.498 + 0.000i *[#  18]
     Coe = -.000 + 0.000i *[#  19]
     Coe = 0.007 + 0.000i *[#  20]
     Coe = 0.000 + 0.000i *[#  21]
     Coe = 0.000 + 0.000i *[#  22]
     Coe = 0.498 + 0.000i *[#  23]
     Coe = -.035 + 0.000i *[#  24]
     Coe = -.000 + 0.000i *[#  25]
     Coe = 0.000 + 0.000i *[#  26]
     Coe = -.498 + 0.000i *[#  27]
     Coe = 0.035 + 0.000i *[#  28]

==== e(  24) =    -9.31420 eV ==== 
     Coe = 0.000 + 0.000i *[#   1]
     Coe = 0.000 + 0.000i *[#   2]
     Coe = -.000 + 0.000i *[#   3]
     Coe = -.000 + 0.000i *[#   4]
     Coe = -.000 + 0.000i *[#   5]
     Coe = -.007 + 0.000i *[#   6]
     Coe = -.500 + 0.000i *[#   7]
     Coe = -.000 + 0.000i *[#   8]
     Coe = 0.000 + 0.000i *[#   9]
     Coe = 0.007 + 0.000i *[#  10]
     Coe = 0.500 + 0.000i *[#  11]
     Coe = -.000 + 0.000i *[#  12]
     Coe = -.000 + 0.000i *[#  13]
     Coe = -.006 + 0.000i *[#  14]
     Coe = 0.000 + 0.000i *[#  15]
     Coe = -.500 + 0.000i *[#  16]
     Coe = 0.000 + 0.000i *[#  17]
     Coe = 0.006 + 0.000i *[#  18]
     Coe = 0.000 + 0.000i *[#  19]
     Coe = 0.500 + 0.000i *[#  20]
     Coe = 0.000 + 0.000i *[#  21]
     Coe = 0.000 + 0.000i *[#  22]
     Coe = -.006 + 0.000i *[#  23]
     Coe = 0.007 + 0.000i *[#  24]
     Coe = -.000 + 0.000i *[#  25]
     Coe = 0.000 + 0.000i *[#  26]
     Coe = 0.006 + 0.000i *[#  27]
     Coe = -.007 + 0.000i *[#  28]

==== e(  25) =    -1.95261 eV ==== 
     Coe = -.616 + 0.000i *[#   1]
     Coe = -.000 + 0.000i *[#   2]
     Coe = 0.000 + 0.000i *[#   3]
     Coe = 0.000 + 0.000i *[#   4]
     Coe = 0.069 + 0.000i *[#   5]
     Coe = 0.000 + 0.000i *[#   6]
     Coe = 0.000 + 0.000i *[#   7]
     Coe = 0.240 + 0.000i *[#   8]
     Coe = 0.069 + 0.000i *[#   9]
     Coe = 0.000 + 0.000i *[#  10]
     Coe = -.000 + 0.000i *[#  11]
     Coe = -.240 + 0.000i *[#  12]
     Coe = 0.069 + 0.000i *[#  13]
     Coe = 0.000 + 0.000i *[#  14]
     Coe = -.240 + 0.000i *[#  15]
     Coe = -.000 + 0.000i *[#  16]
     Coe = 0.069 + 0.000i *[#  17]
     Coe = -.000 + 0.000i *[#  18]
     Coe = 0.240 + 0.000i *[#  19]
     Coe = -.000 + 0.000i *[#  20]
     Coe = 0.069 + 0.000i *[#  21]
     Coe = 0.240 + 0.000i *[#  22]
     Coe = -.000 + 0.000i *[#  23]
     Coe = -.000 + 0.000i *[#  24]
     Coe = 0.069 + 0.000i *[#  25]
     Coe = -.240 + 0.000i *[#  26]
     Coe = 0.000 + 0.000i *[#  27]
     Coe = -.000 + 0.000i *[#  28]

==== e(  26) =    -0.94458 eV ==== 
     Coe = -.301 + 0.000i *[#   1]
     Coe = -.000 + 0.000i *[#   2]
     Coe = 0.000 + 0.000i *[#   3]
     Coe = 0.000 + 0.000i *[#   4]
     Coe = 0.034 + 0.000i *[#   5]
     Coe = 0.000 + 0.000i *[#   6]
     Coe = -.000 + 0.000i *[#   7]
     Coe = 0.126 + 0.000i *[#   8]
     Coe = 0.034 + 0.000i *[#   9]
     Coe = 0.000 + 0.000i *[#  10]
     Coe = -.000 + 0.000i *[#  11]
     Coe = -.126 + 0.000i *[#  12]
     Coe = 0.034 + 0.000i *[#  13]
     Coe = 0.000 + 0.000i *[#  14]
     Coe = -.126 + 0.000i *[#  15]
     Coe = -.000 + 0.000i *[#  16]
     Coe = 0.034 + 0.000i *[#  17]
     Coe = 0.000 + 0.000i *[#  18]
     Coe = 0.126 + 0.000i *[#  19]
     Coe = -.000 + 0.000i *[#  20]
     Coe = 0.034 + 0.000i *[#  21]
     Coe = 0.126 + 0.000i *[#  22]
     Coe = -.000 + 0.000i *[#  23]
     Coe = -.000 + 0.000i *[#  24]
     Coe = 0.034 + 0.000i *[#  25]
     Coe = -.126 + 0.000i *[#  26]
     Coe = -.000 + 0.000i *[#  27]
     Coe = -.000 + 0.000i *[#  28]

==== e(  27) =     0.23562 eV ==== 
     Coe = -.000 + 0.000i *[#   1]
     Coe = 0.000 + 0.000i *[#   2]
     Coe = 0.000 + 0.000i *[#   3]
     Coe = -.000 + 0.000i *[#   4]
     Coe = -.003 + 0.000i *[#   5]
     Coe = -.000 + 0.000i *[#   6]
     Coe = -.000 + 0.000i *[#   7]
     Coe = -.007 + 0.000i *[#   8]
     Coe = -.003 + 0.000i *[#   9]
     Coe = -.000 + 0.000i *[#  10]
     Coe = -.000 + 0.000i *[#  11]
     Coe = 0.007 + 0.000i *[#  12]
     Coe = 0.001 + 0.000i *[#  13]
     Coe = -.000 + 0.000i *[#  14]
     Coe = -.003 + 0.000i *[#  15]
     Coe = 0.000 + 0.000i *[#  16]
     Coe = 0.001 + 0.000i *[#  17]
     Coe = -.000 + 0.000i *[#  18]
     Coe = 0.003 + 0.000i *[#  19]
     Coe = 0.000 + 0.000i *[#  20]
     Coe = 0.002 + 0.000i *[#  21]
     Coe = 0.004 + 0.000i *[#  22]
     Coe = -.000 + 0.000i *[#  23]
     Coe = 0.000 + 0.000i *[#  24]
     Coe = 0.002 + 0.000i *[#  25]
     Coe = -.004 + 0.000i *[#  26]
     Coe = -.000 + 0.000i *[#  27]
     Coe = 0.000 + 0.000i *[#  28]

==== e(  28) =     0.26631 eV ==== 
     Coe = -.000 + 0.000i *[#   1]
     Coe = 0.055 + 0.000i *[#   2]
     Coe = 0.119 + 0.000i *[#   3]
     Coe = 0.052 + 0.000i *[#   4]
     Coe = 0.012 + 0.000i *[#   5]
     Coe = -.007 + 0.000i *[#   6]
     Coe = -.015 + 0.000i *[#   7]
     Coe = 0.010 + 0.000i *[#   8]
     Coe = -.012 + 0.000i *[#   9]
     Coe = -.007 + 0.000i *[#  10]
     Coe = -.015 + 0.000i *[#  11]
     Coe = 0.010 + 0.000i *[#  12]
     Coe = -.027 + 0.000i *[#  13]
     Coe = -.007 + 0.000i *[#  14]
     Coe = 0.024 + 0.000i *[#  15]
     Coe = -.007 + 0.000i *[#  16]
     Coe = 0.027 + 0.000i *[#  17]
     Coe = -.007 + 0.000i *[#  18]
     Coe = 0.024 + 0.000i *[#  19]
     Coe = -.007 + 0.000i *[#  20]
     Coe = 0.013 + 0.000i *[#  21]
     Coe = 0.011 + 0.000i *[#  22]
     Coe = -.015 + 0.000i *[#  23]
     Coe = -.007 + 0.000i *[#  24]
     Coe = -.013 + 0.000i *[#  25]
     Coe = 0.011 + 0.000i *[#  26]
     Coe = -.015 + 0.000i *[#  27]
     Coe = -.007 + 0.000i *[#  28]

==== e(  29) =     0.26631 eV ==== 
     Coe = 0.000 + 0.000i *[#   1]
     Coe = 0.128 + 0.000i *[#   2]
     Coe = -.058 + 0.000i *[#   3]
     Coe = -.004 + 0.000i *[#   4]
     Coe = -.001 + 0.000i *[#   5]
     Coe = -.016 + 0.000i *[#   6]
     Coe = 0.007 + 0.000i *[#   7]
     Coe = -.001 + 0.000i *[#   8]
     Coe = 0.001 + 0.000i *[#   9]
     Coe = -.016 + 0.000i *[#  10]
     Coe = 0.007 + 0.000i *[#  11]
     Coe = -.001 + 0.000i *[#  12]
     Coe = 0.013 + 0.000i *[#  13]
     Coe = -.016 + 0.000i *[#  14]
     Coe = -.012 + 0.000i *[#  15]
     Coe = 0.000 + 0.000i *[#  16]
     Coe = -.013 + 0.000i *[#  17]
     Coe = -.016 + 0.000i *[#  18]
     Coe = -.012 + 0.000i *[#  19]
     Coe = 0.000 + 0.000i *[#  20]
     Coe = 0.029 + 0.000i *[#  21]
     Coe = 0.026 + 0.000i *[#  22]
     Coe = 0.007 + 0.000i *[#  23]
     Coe = 0.000 + 0.000i *[#  24]
     Coe = -.029 + 0.000i *[#  25]
     Coe = 0.026 + 0.000i *[#  26]
     Coe = 0.007 + 0.000i *[#  27]
     Coe = 0.000 + 0.000i *[#  28]


 End printing coefficients

     PROJWFC      :      0.45s CPU      0.49s WALL


   This run was terminated on:  18:33:20  29Mar2022            

=------------------------------------------------------------------------------=
   JOB DONE.
=------------------------------------------------------------------------------=
